LAMMPS data file. msi2lmp v3.9.9 / 05 Nov 2018 / CGCMM for ./Material_Studio/MSI_files/Water_CsCl_1M

   3096 atoms
   2040 bonds
   1020 angles

   4 atom types
   1 bond types
   1 angle types

     0.305942417    20.919942417 xlo xhi
     0.321517604    36.089117604 ylo yhi
     0.253665561    49.253665561 zlo zhi

Masses

   1  15.999400 # o*
   2   1.007970 # h*
   3  35.453000 # Cl
   4 132.910000 # Cs

Pair Coeffs # lj/cut/coul/long

   1   0.1554164124   3.1655200879 # o*
   2   0.0000000000   0.0000000000 # h*
   3   0.1000998933   4.3999709805 # Cl
   4   0.1000007161   3.8310403819 # Cs

Bond Coeffs # harmonic

   1   553.9350     1.0000 # o*-h*

Angle Coeffs # harmonic

   1    45.7530   109.4700 # h*-o*-h*

Atoms # full

      1      1   1 -0.820000     1.717833333     1.625800000     1.531248456   0   0   0 # o*
      2      1   2  0.410000     1.347833707     2.365800101     2.271248556   0   0   0 # h*
      3      1   2  0.410000     2.827833343     1.625800000     1.531248456   0   0   0 # h*
      4      1   1 -0.820000     5.153500000     1.625800000     1.531248456   0   0   0 # o*
      5      1   2  0.410000     4.783500374     2.365800101     2.271248556   0   0   0 # h*
      6      1   2  0.410000     6.263500010     1.625800000     1.531248456   0   0   0 # h*
      7      1   1 -0.820000     8.589166667     1.625800000     1.531248456   0   0   0 # o*
      8      1   2  0.410000     8.219167040     2.365800101     2.271248556   0   0   0 # h*
      9      1   2  0.410000     9.699166676     1.625800000     1.531248456   0   0   0 # h*
     10      1   1 -0.820000    12.024833333     1.625800000     1.531248456   0   0   0 # o*
     11      1   2  0.410000    11.654833707     2.365800101     2.271248556   0   0   0 # h*
     12      1   2  0.410000    13.134833343     1.625800000     1.531248456   0   0   0 # h*
     13      1   1 -0.820000    15.460500000     1.625800000     1.531248456   0   0   0 # o*
     14      1   2  0.410000    15.090500374     2.365800101     2.271248556   0   0   0 # h*
     15      1   2  0.410000    16.570500010     1.625800000     1.531248456   0   0   0 # h*
     16      1   1 -0.820000    18.896166667     1.625800000     1.531248456   0   0   0 # o*
     17      1   2  0.410000    18.526167040     2.365800101     2.271248556   0   0   0 # h*
     18      1   2  0.410000    20.006166676     1.625800000     1.531248456   0   0   0 # h*
     19      1   1 -0.820000     1.717833333     4.877400000     1.531248456   0   0   0 # o*
     20      1   2  0.410000     1.347833707     5.617400101     2.271248556   0   0   0 # h*
     21      1   2  0.410000     2.827833343     4.877400000     1.531248456   0   0   0 # h*
     22      1   1 -0.820000     5.153500000     4.877400000     1.531248456   0   0   0 # o*
     23      1   2  0.410000     4.783500374     5.617400101     2.271248556   0   0   0 # h*
     24      1   2  0.410000     6.263500010     4.877400000     1.531248456   0   0   0 # h*
     25      1   1 -0.820000     8.589166667     4.877400000     1.531248456   0   0   0 # o*
     26      1   2  0.410000     8.219167040     5.617400101     2.271248556   0   0   0 # h*
     27      1   2  0.410000     9.699166676     4.877400000     1.531248456   0   0   0 # h*
     28      1   1 -0.820000    12.024833333     4.877400000     1.531248456   0   0   0 # o*
     29      1   2  0.410000    11.654833707     5.617400101     2.271248556   0   0   0 # h*
     30      1   2  0.410000    13.134833343     4.877400000     1.531248456   0   0   0 # h*
     31      1   1 -0.820000    15.460500000     4.877400000     1.531248456   0   0   0 # o*
     32      1   2  0.410000    15.090500374     5.617400101     2.271248556   0   0   0 # h*
     33      1   2  0.410000    16.570500010     4.877400000     1.531248456   0   0   0 # h*
     34      1   1 -0.820000    18.896166667     4.877400000     1.531248456   0   0   0 # o*
     35      1   2  0.410000    18.526167040     5.617400101     2.271248556   0   0   0 # h*
     36      1   2  0.410000    20.006166676     4.877400000     1.531248456   0   0   0 # h*
     37      1   1 -0.820000     1.717833333     8.129000000     1.531248456   0   0   0 # o*
     38      1   2  0.410000     1.347833707     8.869000101     2.271248556   0   0   0 # h*
     39      1   2  0.410000     2.827833343     8.129000000     1.531248456   0   0   0 # h*
     40      1   1 -0.820000     5.153500000     8.129000000     1.531248456   0   0   0 # o*
     41      1   2  0.410000     4.783500374     8.869000101     2.271248556   0   0   0 # h*
     42      1   2  0.410000     6.263500010     8.129000000     1.531248456   0   0   0 # h*
     43      1   1 -0.820000     8.589166667     8.129000000     1.531248456   0   0   0 # o*
     44      1   2  0.410000     8.219167040     8.869000101     2.271248556   0   0   0 # h*
     45      1   2  0.410000     9.699166676     8.129000000     1.531248456   0   0   0 # h*
     46      1   1 -0.820000    12.024833333     8.129000000     1.531248456   0   0   0 # o*
     47      1   2  0.410000    11.654833707     8.869000101     2.271248556   0   0   0 # h*
     48      1   2  0.410000    13.134833343     8.129000000     1.531248456   0   0   0 # h*
     49      1   1 -0.820000    15.460500000     8.129000000     1.531248456   0   0   0 # o*
     50      1   2  0.410000    15.090500374     8.869000101     2.271248556   0   0   0 # h*
     51      1   2  0.410000    16.570500010     8.129000000     1.531248456   0   0   0 # h*
     52      1   1 -0.820000    18.896166667     8.129000000     1.531248456   0   0   0 # o*
     53      1   2  0.410000    18.526167040     8.869000101     2.271248556   0   0   0 # h*
     54      1   2  0.410000    20.006166676     8.129000000     1.531248456   0   0   0 # h*
     55      1   1 -0.820000     1.717833333    11.380600000     1.531248456   0   0   0 # o*
     56      1   2  0.410000     1.347833707    12.120600101     2.271248556   0   0   0 # h*
     57      1   2  0.410000     2.827833343    11.380600000     1.531248456   0   0   0 # h*
     58      1   1 -0.820000     5.153500000    11.380600000     1.531248456   0   0   0 # o*
     59      1   2  0.410000     4.783500374    12.120600101     2.271248556   0   0   0 # h*
     60      1   2  0.410000     6.263500010    11.380600000     1.531248456   0   0   0 # h*
     61      1   1 -0.820000     8.589166667    11.380600000     1.531248456   0   0   0 # o*
     62      1   2  0.410000     8.219167040    12.120600101     2.271248556   0   0   0 # h*
     63      1   2  0.410000     9.699166676    11.380600000     1.531248456   0   0   0 # h*
     64      1   3 -1.000000    12.024833333    11.380600000     1.531248456   0   0   0 # Cl
     65      1   1 -0.820000    15.460500000    11.380600000     1.531248456   0   0   0 # o*
     66      1   2  0.410000    15.090500374    12.120600101     2.271248556   0   0   0 # h*
     67      1   2  0.410000    16.570500010    11.380600000     1.531248456   0   0   0 # h*
     68      1   1 -0.820000    18.896166667    11.380600000     1.531248456   0   0   0 # o*
     69      1   2  0.410000    18.526167040    12.120600101     2.271248556   0   0   0 # h*
     70      1   2  0.410000    20.006166676    11.380600000     1.531248456   0   0   0 # h*
     71      1   1 -0.820000     1.717833333    14.632200000     1.531248456   0   0   0 # o*
     72      1   2  0.410000     1.347833707    15.372200101     2.271248556   0   0   0 # h*
     73      1   2  0.410000     2.827833343    14.632200000     1.531248456   0   0   0 # h*
     74      1   1 -0.820000     5.153500000    14.632200000     1.531248456   0   0   0 # o*
     75      1   2  0.410000     4.783500374    15.372200101     2.271248556   0   0   0 # h*
     76      1   2  0.410000     6.263500010    14.632200000     1.531248456   0   0   0 # h*
     77      1   3 -1.000000     8.589166667    14.632200000     1.531248456   0   0   0 # Cl
     78      1   1 -0.820000    12.024833333    14.632200000     1.531248456   0   0   0 # o*
     79      1   2  0.410000    11.654833707    15.372200101     2.271248556   0   0   0 # h*
     80      1   2  0.410000    13.134833343    14.632200000     1.531248456   0   0   0 # h*
     81      1   1 -0.820000    15.460500000    14.632200000     1.531248456   0   0   0 # o*
     82      1   2  0.410000    15.090500374    15.372200101     2.271248556   0   0   0 # h*
     83      1   2  0.410000    16.570500010    14.632200000     1.531248456   0   0   0 # h*
     84      1   3 -1.000000    18.896166667    14.632200000     1.531248456   0   0   0 # Cl
     85      1   1 -0.820000     1.717833333    17.883800000     1.531248456   0   0   0 # o*
     86      1   2  0.410000     1.347833707    18.623800101     2.271248556   0   0   0 # h*
     87      1   2  0.410000     2.827833343    17.883800000     1.531248456   0   0   0 # h*
     88      1   1 -0.820000     5.153500000    17.883800000     1.531248456   0   0   0 # o*
     89      1   2  0.410000     4.783500374    18.623800101     2.271248556   0   0   0 # h*
     90      1   2  0.410000     6.263500010    17.883800000     1.531248456   0   0   0 # h*
     91      1   1 -0.820000     8.589166667    17.883800000     1.531248456   0   0   0 # o*
     92      1   2  0.410000     8.219167040    18.623800101     2.271248556   0   0   0 # h*
     93      1   2  0.410000     9.699166676    17.883800000     1.531248456   0   0   0 # h*
     94      1   1 -0.820000    12.024833333    17.883800000     1.531248456   0   0   0 # o*
     95      1   2  0.410000    11.654833707    18.623800101     2.271248556   0   0   0 # h*
     96      1   2  0.410000    13.134833343    17.883800000     1.531248456   0   0   0 # h*
     97      1   1 -0.820000    15.460500000    17.883800000     1.531248456   0   0   0 # o*
     98      1   2  0.410000    15.090500374    18.623800101     2.271248556   0   0   0 # h*
     99      1   2  0.410000    16.570500010    17.883800000     1.531248456   0   0   0 # h*
    100      1   1 -0.820000    18.896166667    17.883800000     1.531248456   0   0   0 # o*
    101      1   2  0.410000    18.526167040    18.623800101     2.271248556   0   0   0 # h*
    102      1   2  0.410000    20.006166676    17.883800000     1.531248456   0   0   0 # h*
    103      1   1 -0.820000     1.717833333    21.135400000     1.531248456   0   0   0 # o*
    104      1   2  0.410000     1.347833707    21.875400101     2.271248556   0   0   0 # h*
    105      1   2  0.410000     2.827833343    21.135400000     1.531248456   0   0   0 # h*
    106      1   4  1.000000     5.153500000    21.135400000     1.531248456   0   0   0 # Cs
    107      1   1 -0.820000     8.589166667    21.135400000     1.531248456   0   0   0 # o*
    108      1   2  0.410000     8.219167040    21.875400101     2.271248556   0   0   0 # h*
    109      1   2  0.410000     9.699166676    21.135400000     1.531248456   0   0   0 # h*
    110      1   3 -1.000000    12.024833333    21.135400000     1.531248456   0   0   0 # Cl
    111      1   1 -0.820000    15.460500000    21.135400000     1.531248456   0   0   0 # o*
    112      1   2  0.410000    15.090500374    21.875400101     2.271248556   0   0   0 # h*
    113      1   2  0.410000    16.570500010    21.135400000     1.531248456   0   0   0 # h*
    114      1   3 -1.000000    18.896166667    21.135400000     1.531248456   0   0   0 # Cl
    115      1   1 -0.820000     1.717833333    24.387000000     1.531248456   0   0   0 # o*
    116      1   2  0.410000     1.347833707    25.127000101     2.271248556   0   0   0 # h*
    117      1   2  0.410000     2.827833343    24.387000000     1.531248456   0   0   0 # h*
    118      1   1 -0.820000     5.153500000    24.387000000     1.531248456   0   0   0 # o*
    119      1   2  0.410000     4.783500374    25.127000101     2.271248556   0   0   0 # h*
    120      1   2  0.410000     6.263500010    24.387000000     1.531248456   0   0   0 # h*
    121      1   1 -0.820000     8.589166667    24.387000000     1.531248456   0   0   0 # o*
    122      1   2  0.410000     8.219167040    25.127000101     2.271248556   0   0   0 # h*
    123      1   2  0.410000     9.699166676    24.387000000     1.531248456   0   0   0 # h*
    124      1   1 -0.820000    12.024833333    24.387000000     1.531248456   0   0   0 # o*
    125      1   2  0.410000    11.654833707    25.127000101     2.271248556   0   0   0 # h*
    126      1   2  0.410000    13.134833343    24.387000000     1.531248456   0   0   0 # h*
    127      1   1 -0.820000    15.460500000    24.387000000     1.531248456   0   0   0 # o*
    128      1   2  0.410000    15.090500374    25.127000101     2.271248556   0   0   0 # h*
    129      1   2  0.410000    16.570500010    24.387000000     1.531248456   0   0   0 # h*
    130      1   1 -0.820000    18.896166667    24.387000000     1.531248456   0   0   0 # o*
    131      1   2  0.410000    18.526167040    25.127000101     2.271248556   0   0   0 # h*
    132      1   2  0.410000    20.006166676    24.387000000     1.531248456   0   0   0 # h*
    133      1   1 -0.820000     1.717833333    27.638600000     1.531248456   0   0   0 # o*
    134      1   2  0.410000     1.347833707    28.378600101     2.271248556   0   0   0 # h*
    135      1   2  0.410000     2.827833343    27.638600000     1.531248456   0   0   0 # h*
    136      1   1 -0.820000     5.153500000    27.638600000     1.531248456   0   0   0 # o*
    137      1   2  0.410000     4.783500374    28.378600101     2.271248556   0   0   0 # h*
    138      1   2  0.410000     6.263500010    27.638600000     1.531248456   0   0   0 # h*
    139      1   1 -0.820000     8.589166667    27.638600000     1.531248456   0   0   0 # o*
    140      1   2  0.410000     8.219167040    28.378600101     2.271248556   0   0   0 # h*
    141      1   2  0.410000     9.699166676    27.638600000     1.531248456   0   0   0 # h*
    142      1   1 -0.820000    12.024833333    27.638600000     1.531248456   0   0   0 # o*
    143      1   2  0.410000    11.654833707    28.378600101     2.271248556   0   0   0 # h*
    144      1   2  0.410000    13.134833343    27.638600000     1.531248456   0   0   0 # h*
    145      1   1 -0.820000    15.460500000    27.638600000     1.531248456   0   0   0 # o*
    146      1   2  0.410000    15.090500374    28.378600101     2.271248556   0   0   0 # h*
    147      1   2  0.410000    16.570500010    27.638600000     1.531248456   0   0   0 # h*
    148      1   1 -0.820000    18.896166667    27.638600000     1.531248456   0   0   0 # o*
    149      1   2  0.410000    18.526167040    28.378600101     2.271248556   0   0   0 # h*
    150      1   2  0.410000    20.006166676    27.638600000     1.531248456   0   0   0 # h*
    151      1   1 -0.820000     1.717833333    30.890200000     1.531248456   0   0   0 # o*
    152      1   2  0.410000     1.347833707    31.630200101     2.271248556   0   0   0 # h*
    153      1   2  0.410000     2.827833343    30.890200000     1.531248456   0   0   0 # h*
    154      1   1 -0.820000     5.153500000    30.890200000     1.531248456   0   0   0 # o*
    155      1   2  0.410000     4.783500374    31.630200101     2.271248556   0   0   0 # h*
    156      1   2  0.410000     6.263500010    30.890200000     1.531248456   0   0   0 # h*
    157      1   1 -0.820000     8.589166667    30.890200000     1.531248456   0   0   0 # o*
    158      1   2  0.410000     8.219167040    31.630200101     2.271248556   0   0   0 # h*
    159      1   2  0.410000     9.699166676    30.890200000     1.531248456   0   0   0 # h*
    160      1   1 -0.820000    12.024833333    30.890200000     1.531248456   0   0   0 # o*
    161      1   2  0.410000    11.654833707    31.630200101     2.271248556   0   0   0 # h*
    162      1   2  0.410000    13.134833343    30.890200000     1.531248456   0   0   0 # h*
    163      1   1 -0.820000    15.460500000    30.890200000     1.531248456   0   0   0 # o*
    164      1   2  0.410000    15.090500374    31.630200101     2.271248556   0   0   0 # h*
    165      1   2  0.410000    16.570500010    30.890200000     1.531248456   0   0   0 # h*
    166      1   1 -0.820000    18.896166667    30.890200000     1.531248456   0   0   0 # o*
    167      1   2  0.410000    18.526167040    31.630200101     2.271248556   0   0   0 # h*
    168      1   2  0.410000    20.006166676    30.890200000     1.531248456   0   0   0 # h*
    169      1   1 -0.820000     1.717833333    34.141800000     1.531248456   0   0   0 # o*
    170      1   2  0.410000     1.347833707    34.881800101     2.271248556   0   0   0 # h*
    171      1   2  0.410000     2.827833343    34.141800000     1.531248456   0   0   0 # h*
    172      1   1 -0.820000     5.153500000    34.141800000     1.531248456   0   0   0 # o*
    173      1   2  0.410000     4.783500374    34.881800101     2.271248556   0   0   0 # h*
    174      1   2  0.410000     6.263500010    34.141800000     1.531248456   0   0   0 # h*
    175      1   1 -0.820000     8.589166667    34.141800000     1.531248456   0   0   0 # o*
    176      1   2  0.410000     8.219167040    34.881800101     2.271248556   0   0   0 # h*
    177      1   2  0.410000     9.699166676    34.141800000     1.531248456   0   0   0 # h*
    178      1   1 -0.820000    12.024833333    34.141800000     1.531248456   0   0   0 # o*
    179      1   2  0.410000    11.654833707    34.881800101     2.271248556   0   0   0 # h*
    180      1   2  0.410000    13.134833343    34.141800000     1.531248456   0   0   0 # h*
    181      1   1 -0.820000    15.460500000    34.141800000     1.531248456   0   0   0 # o*
    182      1   2  0.410000    15.090500374    34.881800101     2.271248556   0   0   0 # h*
    183      1   2  0.410000    16.570500010    34.141800000     1.531248456   0   0   0 # h*
    184      1   1 -0.820000    18.896166667    34.141800000     1.531248456   0   0   0 # o*
    185      1   2  0.410000    18.526167040    34.881800101     2.271248556   0   0   0 # h*
    186      1   2  0.410000    20.006166676    34.141800000     1.531248456   0   0   0 # h*
    187      1   1 -0.820000     1.717833333     1.625800000     4.593745367   0   0   0 # o*
    188      1   2  0.410000     1.347833707     2.365800101     5.333745468   0   0   0 # h*
    189      1   2  0.410000     2.827833343     1.625800000     4.593745367   0   0   0 # h*
    190      1   1 -0.820000     5.153500000     1.625800000     4.593745367   0   0   0 # o*
    191      1   2  0.410000     4.783500374     2.365800101     5.333745468   0   0   0 # h*
    192      1   2  0.410000     6.263500010     1.625800000     4.593745367   0   0   0 # h*
    193      1   1 -0.820000     8.589166667     1.625800000     4.593745367   0   0   0 # o*
    194      1   2  0.410000     8.219167040     2.365800101     5.333745468   0   0   0 # h*
    195      1   2  0.410000     9.699166676     1.625800000     4.593745367   0   0   0 # h*
    196      1   1 -0.820000    12.024833333     1.625800000     4.593745367   0   0   0 # o*
    197      1   2  0.410000    11.654833707     2.365800101     5.333745468   0   0   0 # h*
    198      1   2  0.410000    13.134833343     1.625800000     4.593745367   0   0   0 # h*
    199      1   1 -0.820000    15.460500000     1.625800000     4.593745367   0   0   0 # o*
    200      1   2  0.410000    15.090500374     2.365800101     5.333745468   0   0   0 # h*
    201      1   2  0.410000    16.570500010     1.625800000     4.593745367   0   0   0 # h*
    202      1   1 -0.820000    18.896166667     1.625800000     4.593745367   0   0   0 # o*
    203      1   2  0.410000    18.526167040     2.365800101     5.333745468   0   0   0 # h*
    204      1   2  0.410000    20.006166676     1.625800000     4.593745367   0   0   0 # h*
    205      1   1 -0.820000     1.717833333     4.877400000     4.593745367   0   0   0 # o*
    206      1   2  0.410000     1.347833707     5.617400101     5.333745468   0   0   0 # h*
    207      1   2  0.410000     2.827833343     4.877400000     4.593745367   0   0   0 # h*
    208      1   1 -0.820000     5.153500000     4.877400000     4.593745367   0   0   0 # o*
    209      1   2  0.410000     4.783500374     5.617400101     5.333745468   0   0   0 # h*
    210      1   2  0.410000     6.263500010     4.877400000     4.593745367   0   0   0 # h*
    211      1   1 -0.820000     8.589166667     4.877400000     4.593745367   0   0   0 # o*
    212      1   2  0.410000     8.219167040     5.617400101     5.333745468   0   0   0 # h*
    213      1   2  0.410000     9.699166676     4.877400000     4.593745367   0   0   0 # h*
    214      1   1 -0.820000    12.024833333     4.877400000     4.593745367   0   0   0 # o*
    215      1   2  0.410000    11.654833707     5.617400101     5.333745468   0   0   0 # h*
    216      1   2  0.410000    13.134833343     4.877400000     4.593745367   0   0   0 # h*
    217      1   1 -0.820000    15.460500000     4.877400000     4.593745367   0   0   0 # o*
    218      1   2  0.410000    15.090500374     5.617400101     5.333745468   0   0   0 # h*
    219      1   2  0.410000    16.570500010     4.877400000     4.593745367   0   0   0 # h*
    220      1   1 -0.820000    18.896166667     4.877400000     4.593745367   0   0   0 # o*
    221      1   2  0.410000    18.526167040     5.617400101     5.333745468   0   0   0 # h*
    222      1   2  0.410000    20.006166676     4.877400000     4.593745367   0   0   0 # h*
    223      1   1 -0.820000     1.717833333     8.129000000     4.593745367   0   0   0 # o*
    224      1   2  0.410000     1.347833707     8.869000101     5.333745468   0   0   0 # h*
    225      1   2  0.410000     2.827833343     8.129000000     4.593745367   0   0   0 # h*
    226      1   1 -0.820000     5.153500000     8.129000000     4.593745367   0   0   0 # o*
    227      1   2  0.410000     4.783500374     8.869000101     5.333745468   0   0   0 # h*
    228      1   2  0.410000     6.263500010     8.129000000     4.593745367   0   0   0 # h*
    229      1   1 -0.820000     8.589166667     8.129000000     4.593745367   0   0   0 # o*
    230      1   2  0.410000     8.219167040     8.869000101     5.333745468   0   0   0 # h*
    231      1   2  0.410000     9.699166676     8.129000000     4.593745367   0   0   0 # h*
    232      1   1 -0.820000    12.024833333     8.129000000     4.593745367   0   0   0 # o*
    233      1   2  0.410000    11.654833707     8.869000101     5.333745468   0   0   0 # h*
    234      1   2  0.410000    13.134833343     8.129000000     4.593745367   0   0   0 # h*
    235      1   1 -0.820000    15.460500000     8.129000000     4.593745367   0   0   0 # o*
    236      1   2  0.410000    15.090500374     8.869000101     5.333745468   0   0   0 # h*
    237      1   2  0.410000    16.570500010     8.129000000     4.593745367   0   0   0 # h*
    238      1   1 -0.820000    18.896166667     8.129000000     4.593745367   0   0   0 # o*
    239      1   2  0.410000    18.526167040     8.869000101     5.333745468   0   0   0 # h*
    240      1   2  0.410000    20.006166676     8.129000000     4.593745367   0   0   0 # h*
    241      1   1 -0.820000     1.717833333    11.380600000     4.593745367   0   0   0 # o*
    242      1   2  0.410000     1.347833707    12.120600101     5.333745468   0   0   0 # h*
    243      1   2  0.410000     2.827833343    11.380600000     4.593745367   0   0   0 # h*
    244      1   1 -0.820000     5.153500000    11.380600000     4.593745367   0   0   0 # o*
    245      1   2  0.410000     4.783500374    12.120600101     5.333745468   0   0   0 # h*
    246      1   2  0.410000     6.263500010    11.380600000     4.593745367   0   0   0 # h*
    247      1   1 -0.820000     8.589166667    11.380600000     4.593745367   0   0   0 # o*
    248      1   2  0.410000     8.219167040    12.120600101     5.333745468   0   0   0 # h*
    249      1   2  0.410000     9.699166676    11.380600000     4.593745367   0   0   0 # h*
    250      1   1 -0.820000    12.024833333    11.380600000     4.593745367   0   0   0 # o*
    251      1   2  0.410000    11.654833707    12.120600101     5.333745468   0   0   0 # h*
    252      1   2  0.410000    13.134833343    11.380600000     4.593745367   0   0   0 # h*
    253      1   1 -0.820000    15.460500000    11.380600000     4.593745367   0   0   0 # o*
    254      1   2  0.410000    15.090500374    12.120600101     5.333745468   0   0   0 # h*
    255      1   2  0.410000    16.570500010    11.380600000     4.593745367   0   0   0 # h*
    256      1   1 -0.820000    18.896166667    11.380600000     4.593745367   0   0   0 # o*
    257      1   2  0.410000    18.526167040    12.120600101     5.333745468   0   0   0 # h*
    258      1   2  0.410000    20.006166676    11.380600000     4.593745367   0   0   0 # h*
    259      1   1 -0.820000     1.717833333    14.632200000     4.593745367   0   0   0 # o*
    260      1   2  0.410000     1.347833707    15.372200101     5.333745468   0   0   0 # h*
    261      1   2  0.410000     2.827833343    14.632200000     4.593745367   0   0   0 # h*
    262      1   1 -0.820000     5.153500000    14.632200000     4.593745367   0   0   0 # o*
    263      1   2  0.410000     4.783500374    15.372200101     5.333745468   0   0   0 # h*
    264      1   2  0.410000     6.263500010    14.632200000     4.593745367   0   0   0 # h*
    265      1   1 -0.820000     8.589166667    14.632200000     4.593745367   0   0   0 # o*
    266      1   2  0.410000     8.219167040    15.372200101     5.333745468   0   0   0 # h*
    267      1   2  0.410000     9.699166676    14.632200000     4.593745367   0   0   0 # h*
    268      1   1 -0.820000    12.024833333    14.632200000     4.593745367   0   0   0 # o*
    269      1   2  0.410000    11.654833707    15.372200101     5.333745468   0   0   0 # h*
    270      1   2  0.410000    13.134833343    14.632200000     4.593745367   0   0   0 # h*
    271      1   1 -0.820000    15.460500000    14.632200000     4.593745367   0   0   0 # o*
    272      1   2  0.410000    15.090500374    15.372200101     5.333745468   0   0   0 # h*
    273      1   2  0.410000    16.570500010    14.632200000     4.593745367   0   0   0 # h*
    274      1   1 -0.820000    18.896166667    14.632200000     4.593745367   0   0   0 # o*
    275      1   2  0.410000    18.526167040    15.372200101     5.333745468   0   0   0 # h*
    276      1   2  0.410000    20.006166676    14.632200000     4.593745367   0   0   0 # h*
    277      1   1 -0.820000     1.717833333    17.883800000     4.593745367   0   0   0 # o*
    278      1   2  0.410000     1.347833707    18.623800101     5.333745468   0   0   0 # h*
    279      1   2  0.410000     2.827833343    17.883800000     4.593745367   0   0   0 # h*
    280      1   1 -0.820000     5.153500000    17.883800000     4.593745367   0   0   0 # o*
    281      1   2  0.410000     4.783500374    18.623800101     5.333745468   0   0   0 # h*
    282      1   2  0.410000     6.263500010    17.883800000     4.593745367   0   0   0 # h*
    283      1   1 -0.820000     8.589166667    17.883800000     4.593745367   0   0   0 # o*
    284      1   2  0.410000     8.219167040    18.623800101     5.333745468   0   0   0 # h*
    285      1   2  0.410000     9.699166676    17.883800000     4.593745367   0   0   0 # h*
    286      1   1 -0.820000    12.024833333    17.883800000     4.593745367   0   0   0 # o*
    287      1   2  0.410000    11.654833707    18.623800101     5.333745468   0   0   0 # h*
    288      1   2  0.410000    13.134833343    17.883800000     4.593745367   0   0   0 # h*
    289      1   1 -0.820000    15.460500000    17.883800000     4.593745367   0   0   0 # o*
    290      1   2  0.410000    15.090500374    18.623800101     5.333745468   0   0   0 # h*
    291      1   2  0.410000    16.570500010    17.883800000     4.593745367   0   0   0 # h*
    292      1   1 -0.820000    18.896166667    17.883800000     4.593745367   0   0   0 # o*
    293      1   2  0.410000    18.526167040    18.623800101     5.333745468   0   0   0 # h*
    294      1   2  0.410000    20.006166676    17.883800000     4.593745367   0   0   0 # h*
    295      1   1 -0.820000     1.717833333    21.135400000     4.593745367   0   0   0 # o*
    296      1   2  0.410000     1.347833707    21.875400101     5.333745468   0   0   0 # h*
    297      1   2  0.410000     2.827833343    21.135400000     4.593745367   0   0   0 # h*
    298      1   1 -0.820000     5.153500000    21.135400000     4.593745367   0   0   0 # o*
    299      1   2  0.410000     4.783500374    21.875400101     5.333745468   0   0   0 # h*
    300      1   2  0.410000     6.263500010    21.135400000     4.593745367   0   0   0 # h*
    301      1   1 -0.820000     8.589166667    21.135400000     4.593745367   0   0   0 # o*
    302      1   2  0.410000     8.219167040    21.875400101     5.333745468   0   0   0 # h*
    303      1   2  0.410000     9.699166676    21.135400000     4.593745367   0   0   0 # h*
    304      1   1 -0.820000    12.024833333    21.135400000     4.593745367   0   0   0 # o*
    305      1   2  0.410000    11.654833707    21.875400101     5.333745468   0   0   0 # h*
    306      1   2  0.410000    13.134833343    21.135400000     4.593745367   0   0   0 # h*
    307      1   1 -0.820000    15.460500000    21.135400000     4.593745367   0   0   0 # o*
    308      1   2  0.410000    15.090500374    21.875400101     5.333745468   0   0   0 # h*
    309      1   2  0.410000    16.570500010    21.135400000     4.593745367   0   0   0 # h*
    310      1   1 -0.820000    18.896166667    21.135400000     4.593745367   0   0   0 # o*
    311      1   2  0.410000    18.526167040    21.875400101     5.333745468   0   0   0 # h*